          60
Positions of atoms inside and outside of the box - Step        0
  O       0.0369800000     -0.0128100000     -0.0514100000
  H      -0.8327600000     -0.4589100000      0.1598000000
  H       0.2457500000      0.6623000000      0.6561900000
  O       0.0235100000      2.1214400000      1.5411900000
  H      -0.6903300000      2.7302200000      1.8874300000
  H       0.9146800000      2.5652800000      1.6355300000
  O      -2.4805900000     -0.9848900000      0.3235400000
  H      -3.3021400000     -0.4660700000      0.0869900000
  H      -2.3243800000     -1.6935900000     -0.3644900000
  O       0.2688500000     -1.4081400000     -2.4233600000
  H      -0.1047300000     -0.6795800000     -2.9975600000
  H       0.5939400000     -1.0194300000     -1.5612300000
  O       2.7650100000     -0.1459400000      0.6737300000
  H       2.1507300000      0.0184800000     -0.0980700000
  H       2.3250100000     -0.7655800000      1.3237400000
  O      -0.5751400000      2.7131500000     -1.2364400000
  H      -1.3918000000      2.4887400000     -1.7682100000
  H      -0.2325300000      1.8878200000     -0.7875600000
  O       0.8264000000     -1.5709100000      2.4790300000
  H       0.7193900000     -2.0257300000      1.5948700000
  H       1.1566200000     -2.2298000000      3.1549400000
  O       2.6526000000      1.7068200000     -1.6874400000
  H       3.4346500000      2.0548900000     -1.1704300000
  H       2.5437800000      2.2400200000     -2.5264400000
  O      -0.8172200000      0.4928000000      3.5896100000
  H      -0.2588000000      1.0059800000      2.9378100000
  H      -0.6400200000     -0.4855400000      3.4824700000
  O       1.5543800000     -3.5639400000      0.3482400000
  H       0.6731500000     -3.9517500000      0.0778500000
  H       2.0015700000     -3.1631800000     -0.4514400000
  O      -2.1776100000     -2.9511900000     -1.3410800000
  H      -2.7095000000     -3.6641100000     -0.8840200000
  H      -1.2484200000     -3.2823200000     -1.5054400000
  O       2.8706300000      1.6839400000      2.5846200000
  H       3.1092900000      1.4676600000      1.6378800000
  H       2.7596300000      0.8356500000      3.1024600000
  O       2.8699000000     -2.4707200000     -2.1473100000
  H       2.7001000000     -3.0742800000     -2.9263900000
  H       3.8066800000     -2.6012700000     -1.8225400000
  O      -3.1810100000     -1.5055900000      2.8404400000
  H      -3.5586800000     -0.8054000000      3.4463900000
  H      -2.9725100000     -1.0992200000      1.9508000000
  O       3.0033100000     -0.2973700000     -3.4774800000
  H       2.6269700000      0.3914600000     -2.8578700000
  H       2.9635100000     -1.1960100000     -3.0405100000
  O      -2.4806300000      2.2985100000     -3.0087800000
  H      -3.1725400000      2.6821000000     -3.6204700000
  H      -1.8903400000      1.6756200000     -3.5222400000
  O      -3.6075100000      3.3149900000      0.2931200000
  H      -4.4643000000      3.4721100000      0.7843500000
  H      -2.8360000000      3.4779800000      0.9081600000
  O      -1.6702600000     -3.9565100000      2.5110800000
  H      -0.9617200000     -4.1699700000      3.1837500000
  H      -2.0826100000     -3.0723000000      2.7305600000
  O       0.2885900000     -3.9161300000     -3.5741700000
  H       0.5324700000     -3.1269700000     -3.0104300000
  H       0.0037400000     -4.6717900000     -2.9843200000
  O       3.2171000000     -3.9164500000      3.7320200000
  H       3.4919100000     -3.2854400000      3.0065000000
  H       2.7460400000     -4.7016700000      3.3300200000
