          60
Positions of atoms inside and outside of the box - Step        0
  O      -0.0851155397      0.3997365855     -0.0969341441
  H      -0.6557519537      0.1070503755      0.0416407369
  H       0.0518584573      0.8426762565      0.3673222159
  O      -0.0939532067      1.8000180105      0.9479707159
  H      -0.5623036307      2.1994385685      1.1751387799
  H       0.4907434303      2.0912214345      1.0098671899
  O      -1.7368932167     -0.2380451025      0.1490705509
  H      -2.2759121717      0.1023526995     -0.0061299041
  H      -1.6344038357     -0.7030231725     -0.3023459321
  O       0.0670143673     -0.5157394275     -1.6531705391
  H      -0.1780914707     -0.0377312115     -2.0299031591
  H       0.2803059163     -0.2607067965     -1.0875270461
  O       1.7047449433      0.3123899925      0.3788302099
  H       1.3017158353      0.4202659545     -0.1275477701
  H       1.4160609433     -0.0941558115      0.8053017709
  O      -0.4867274717      2.1882389415     -0.8744323271
  H      -1.0225380977      2.0410035405     -1.2233266241
  H      -0.2619410507      1.6467399285     -0.5799221591
  O       0.4328229223     -0.6225328245      1.5632875399
  H       0.3626136613     -0.9209402265      0.9831901639
  H       0.6494802643     -1.0548305535      2.0067520909
  O       1.6309927423      1.5279858285     -1.1703334271
  H       2.1440957473      1.7563545555     -0.8311231661
  H       1.5595959403      1.8778183485     -1.7208013271
  O      -0.6455561597      0.7314673065      2.2919390779
  H      -0.2791767977      1.0681647045      1.8642930979
  H      -0.5292952397      0.0895784325      2.2216445239
  O       0.9104506003     -1.9301598075      0.1652762209
  H       0.3322755973     -2.1846019485     -0.0121266581
  H       1.2038519593     -1.6672211715     -0.3593938271
  O      -1.5381080387     -1.5281345325     -0.9430866311
  H      -1.8870810677     -1.9958813445     -0.6432095651
  H      -0.9284664797     -1.7453889255     -1.0509232271
  O       1.7740422253      1.5129742605      1.6325651389
  H       1.9306270513      1.3710729525      1.0114090249
  H       1.7012151253      0.9564111915      1.9723199629
  O       1.7735632723     -1.2128981655     -1.4720541341
  H       1.6621574923     -1.6088938815     -1.9832085221
  H       2.3881846303     -1.2985520205     -1.2589725371
  O      -2.1964387787     -0.5796763725      1.8004086409
  H      -2.4442280657     -0.1202817135      2.1979724359
  H      -2.0596419287     -0.3130570155      1.2167158369
  O       1.8610935733      0.2130367695     -2.3447786711
  H       1.6141768993      0.6649781325     -1.9382525501
  H       1.8349807933     -0.3765609345     -2.0580826541
  O      -1.7369194607      1.9161936375     -2.0372646011
  H      -2.1908816117      2.1678670365     -2.4385944101
  H      -1.3496301917      1.5075155085     -2.3741457071
  O      -2.4762654287      2.5831061655      0.1291119889
  H      -3.0384053477      2.6861925975      0.4514079919
  H      -1.9700777177      2.6900439045      0.5326397329
  O      -1.2052357037     -2.1877249845      1.5843155449
  H      -0.7403626097     -2.3277760905      2.0256543319
  H      -1.4757785387     -1.6075948035      1.7283163729
  O       0.0799657813     -2.1612316665     -2.4082169801
  H       0.2399754493     -1.6434637905     -2.0383471661
  H      -0.1069243037     -2.6570201925     -2.0212163951
  O       2.0013611923     -2.1614416185      2.3853742789
  H       2.1816640333     -1.7474359575      1.9093606069
  H       1.6922987263     -2.6766244605      2.1216220789
