          12
Positions of atoms inside and outside of the box - Step        0
  O      -1.2560734003      1.4066813870      1.0399007187
  H      -2.2228442489      1.1860139798      1.1692164698
  H      -0.6930270788      0.6712814361      1.4170239572
  O       0.8834071129      0.8005223415     -0.7039151094
  H       0.4799913000      1.5365325862     -0.1602298177
  H       0.1647633568      0.1691354939     -0.9954087290
  O      -1.5224063735     -0.9985023780     -0.8569767007
  H      -1.8743920536     -0.0952327982     -1.1024587274
  H      -1.6379674215     -1.6225303130     -1.6298094051
  O       2.0354974957     -1.2042567814      0.5863040227
  H       2.1034307947     -0.2380346175      0.3376032820
  H       1.4509979495     -1.6777170714     -0.0726882565
