          12
Positions of atoms inside and outside of the box - Step        0
  O      -1.2560734003      1.4066813870      1.0399007187
  H      -2.2228442489      1.1860139798      1.1692164698
  H      -0.6930270788      0.6712814361      1.4170239572
  O       0.8834071129      0.8005223415     -0.7039151094
  H       0.4799913000      1.5365325862     -0.1602298177
  H       0.1647633568      0.1691354939     -0.9954087290
  O      -1.5224063735     -0.9985023780     -0.8569767007
  H      -1.8743920536     -0.0952327982     -1.1024587274
  H      -1.6379674215     -1.6225303130     -1.6298094051
  O       2.0354974957     -1.2042567814      0.5863040227
  H       2.1034307947     -0.2380346175      0.3376032820
  H       1.4509979495     -1.6777170714     -0.0726882565
          12
Positions of atoms inside and outside of the box - Step        1
  O      -1.2560703158      1.4066875803      1.0398971039
  H      -2.2228372325      1.1859549838      1.1692489695
  H      -0.6930824515      0.6712379888      1.4170529457
  O       0.8834145902      0.8005224405     -0.7039170284
  H       0.4799235848      1.5365096751     -0.1602385164
  H       0.1647101285      0.1691617776     -0.9953730430
  O      -1.5224021935     -0.9985034227     -0.8569700317
  H      -1.8744254198     -0.0952468037     -1.1025228443
  H      -1.6379972649     -1.6224890042     -1.6298545622
  O       2.0355019724     -1.2042607243      0.5863111931
  H       2.1033723147     -0.2380402334      0.3375333339
  H       1.4509838718     -1.6776604365     -0.0727293153
