          12
Positions of atoms inside and outside of the box - Step        0
  O      -1.2560734003      1.4066813870      1.0399007187
  H      -2.2228442489      1.1860139798      1.1692164698
  H      -0.6930270788      0.6712814361      1.4170239572
  O       0.8834071129      0.8005223415     -0.7039151094
  H       0.4799913000      1.5365325862     -0.1602298177
  H       0.1647633568      0.1691354939     -0.9954087290
  O      -1.5224063735     -0.9985023780     -0.8569767007
  H      -1.8743920536     -0.0952327982     -1.1024587274
  H      -1.6379674215     -1.6225303130     -1.6298094051
  O       2.0354974957     -1.2042567814      0.5863040227
  H       2.1034307947     -0.2380346175      0.3376032820
  H       1.4509979495     -1.6777170714     -0.0726882565
          12
Positions of atoms inside and outside of the box - Step        1
  O      -1.2559790310      1.4066838403      1.0401605694
  H      -2.2246915160      1.1878029171      1.1680106766
  H      -0.6955560355      0.6731767027      1.4155398519
  O       0.8836167052      0.8002713660     -0.7037064134
  H       0.4777857012      1.5381043223     -0.1612501588
  H       0.1628029934      0.1709592813     -0.9966769115
  O      -1.5218527891     -0.9988389239     -0.8569082212
  H      -1.8767628253     -0.0933485505     -1.1037507617
  H      -1.6399919127     -1.6209259323     -1.6311422534
  O       2.0357428940     -1.2045628490      0.5864184455
  H       2.1011148640     -0.2363212792      0.3361159042
  H       1.4487436344     -1.6758532756     -0.0739383782
          12
Positions of atoms inside and outside of the box - Step        2
  O      -1.2558796656      1.4066995484      1.0404126639
  H      -2.2265158067      1.1894745015      1.1668694094
  H      -0.6981848212      0.6749692941      1.4141219035
  O       0.8838406204      0.8000209690     -0.7035013273
  H       0.4754507508      1.5396245205     -0.1622919531
  H       0.1607404691      0.1728357094     -0.9978736526
  O      -1.5212915248     -0.9991763553     -0.8568269052
  H      -1.8791927729     -0.0915081166     -1.1051637696
  H      -1.6420746952     -1.6192415852     -1.6325641607
  O       2.0359968789     -1.2048760896      0.5865464837
  H       2.0986836096     -0.2346298458      0.3344945653
  H       1.4464656066     -1.6738765454     -0.0752645765
          12
Positions of atoms inside and outside of the box - Step        3
  O      -1.2557764892      1.4067293627      1.0406564975
  H      -2.2283082718      1.1910296695      1.1657920277
  H      -0.7009023546      0.6766435567      1.4127781627
  O       0.8840781966      0.7997715171     -0.7032996173
  H       0.4729927196      1.5410876349     -0.1633591790
  H       0.1585803411      0.1747648618     -0.9989990049
  O      -1.5207232514     -0.9995135041     -0.8567332833
  H      -1.8816743867     -0.0897268429     -1.1066903671
  H      -1.6442143006     -1.6174798976     -1.6340735893
  O       2.0362590682     -1.2051957924      0.5866873872
  H       2.0961388537     -0.2329708096      0.3327454052
  H       1.4441683394     -1.6717874029     -0.0766606557
          12
Positions of atoms inside and outside of the box - Step        4
  O      -1.2556706876      1.4067741133      1.0408915890
  H      -2.2300602222      1.1924696190      1.1647777468
  H      -0.7036974863      0.6781840652      1.4115165041
  O       0.8843287448      0.7995233631     -0.7031010477
  H       0.4704180389      1.5424883163     -0.1644557042
  H       0.1563274079      0.1767468202     -1.0000531306
  O      -1.5201486298     -0.9998492447     -0.8566279131
  H      -1.8842002421     -0.0880195283     -1.1083230863
  H      -1.6464091834     -1.6156434546     -1.6356687131
  O       2.0365290658     -1.2055212512      0.5868403848
  H       2.0934826045     -0.2313544249      0.3308747378
  H       1.4418563229     -1.6695865657     -0.0781202963
          12
Positions of atoms inside and outside of the box - Step        5
  O      -1.2555634363      1.4068346029      1.0411174818
  H      -2.2317631914      1.1937957761      1.1638256577
  H      -0.7065590981      0.6795757289      1.4103445760
  O       0.8845915522      0.7992768447     -0.7029053834
  H       0.4677332731      1.5438214357     -0.1655852556
  H       0.1539866921      0.1787816503     -1.0010362909
  O      -1.5195683097     -1.0001824986     -0.8565113768
  H      -1.8867630340     -0.0864003464     -1.1100544093
  H      -1.6486577145     -1.6137347894     -1.6373474118
  O       2.0368064619     -1.2058517670      0.5870046886
  H       2.0907170578     -0.2297906550      0.3288890247
  H       1.4395340513     -1.6672749557     -0.0796370836
