          12
Positions of atoms inside of the box - Step        0
  O      -1.2560734003      1.4066813870      1.0399007187
  H      -2.2228442489      1.1860139798      1.1692164698
  H      -0.6930270788      0.6712814361      1.4170239572
  O       0.8834071129      0.8005223415     -0.7039151094
  H       0.4799913000      1.5365325862     -0.1602298177
  H       0.1647633568      0.1691354939     -0.9954087290
  O      -1.5224063735     -0.9985023780     -0.8569767007
  H      -1.8743920536     -0.0952327982     -1.1024587274
  H      -1.6379674215     -1.6225303130     -1.6298094051
  O       2.0354974957     -1.2042567814      0.5863040227
  H       2.1034307947     -0.2380346175      0.3376032820
  H       1.4509979495     -1.6777170714     -0.0726882565
          12
Positions of atoms inside of the box - Step        1
  O      -1.2560722157      1.4066832231      1.0398994165
  H      -2.2227839683      1.1859765508      1.1692377544
  H      -0.6931070480      0.6712855394      1.4170289716
  O       0.8834093408      0.8005229203     -0.7039159203
  H       0.4799571552      1.5364716523     -0.1602703463
  H       0.1647612826      0.1691963143     -0.9953613870
  O      -1.5224044620     -0.9985022216     -0.8569747094
  H      -1.8744025988     -0.0952967328     -1.1024998991
  H      -1.6379870308     -1.6224603806     -1.6298039213
  O       2.0354995949     -1.2042585643      0.5863070892
  H       2.1033773659     -0.2380953066      0.3375567564
  H       1.4510195886     -1.6776414511     -0.0726858985
