         192
Positions of atoms inside of the box - Step        0
  O      -0.0302750265      0.3494642997      0.1416665123
  H       0.4207481775      0.6101242100     -0.7377815455
  H       0.0564101149      1.1630723597      0.7762374169
  O      -5.3712653700      5.7843970390     -0.3143286087
  H      -4.6101542702      5.4615225838     -0.6659484857
  H      -6.0091130940      5.0108939505     -0.4493511083
  O       1.3681920871      1.1130264945     -1.9479661181
  H       1.0684304285      2.0334882736     -2.2130173548
  H       1.2261190774      0.4720186099     -2.6869531863
  O       1.6549868579      1.9914058238     -5.6868945425
  H       2.6188762729      2.1837239301     -5.4670560420
  H       1.4379641085      1.1478923803     -5.2629137379
  O       0.2216582642      2.9057885301      1.6696301076
  H       1.1876351117      3.1065031381      1.4622600287
  H       0.1978001486      2.6194541130      2.6502619786
  O      -3.7930933401      1.0323284935     -2.0594145398
  H      -4.6547553083      0.6268590307     -2.3244566956
  H      -3.5936406645      1.7448217582     -2.7172235527
  O      -2.1334057809     -4.7061746843     -3.7027047844
  H      -3.1317437442     -4.5804952380     -3.9311560161
  H      -2.0224060345     -5.6372744089     -3.9443629327
  O      -0.5937634238     -2.3112345104      0.8263294928
  H      -0.2114424326     -1.4257006996      0.7483638846
  H      -0.9208336408     -2.2634588439      1.7830180564
  O       5.2273794891      3.7085100815     -0.2323423025
  H       5.5773053878      2.9889314278      0.3038836197
  H       4.3739608389      4.0762380522      0.2106930964
  O       4.9841714047      3.7957839777     -3.1291147832
  H       5.2401175146      3.3912582041     -2.3141106219
  H       4.2092336479      4.3653952243     -2.9274043140
  O       4.1649438222      5.8869523561      3.6068272423
  H       4.1151342439      5.3626763747      4.3990804567
  H       3.3448232938      6.5145846097      3.6223185372
  O       0.8568712525     -5.4421772083     -5.8100058423
  H       0.5331840938     -6.3436977803     -5.9599895794
  H       0.1600548453     -4.7592710972     -5.7718717211
  O       4.6656818263     -1.4684164376     -0.3632881790
  H       4.3094433712     -0.6071772501     -0.0800433584
  H       4.7844273437     -2.0602324026      0.3516692883
  O      -3.4250271430      3.0246916720     -4.1419148083
  H      -3.4506012806      2.6117923059     -5.0430751887
  H      -4.1286772216      3.7297542442     -4.2572254590
  O       3.5322038245      1.3505121291     -0.1699816806
  H       2.6270162899      1.3083931323     -0.5287148757
  H       3.9012407287      2.1514906362     -0.5461773443
  O      -1.2278193621      4.6163077461      0.0494970508
  H      -0.7560829998      4.2316266335      0.8486912486
  H      -0.8956397710      3.9618158441     -0.6123732705
  O      -5.4055302644      3.4786940987      3.7086645071
  H      -6.1935420363      3.5504790274      4.2734563822
  H      -5.7274287976      2.8147329435      3.0041787835
  O       0.2875778216      4.2851503696     -6.0342299414
  H      -0.1629664322      4.3518811803     -6.8668435685
  H       0.8266248284      3.4455394909     -5.8821923991
  O       5.9388712838      1.8925528094      1.5293793561
  H       5.0425195859      1.7617370110      1.9949103228
  H       6.4945334690      1.1117382051      1.7375627586
  O      -5.3655346223      4.9617903716     -4.7183603949
  H      -5.4377257651      5.9641505657     -4.6718531108
  H      -6.0961683775      4.5874930891     -4.1234649958
  O      -4.5160414022     -0.2092941145      4.6760516518
  H      -5.4686933373      0.0388632876      4.9827772398
  H      -4.5592176866     -0.1525810787      3.7141078615
  O       4.2560279791      2.1695686296     -5.2277778657
  H       4.7855260782      1.4528100310     -5.5894060121
  H       4.7899151530      2.5062480255     -4.4165785290
  O      -2.8501836811     -4.6619101932      1.6398903922
  H      -2.7626022327     -5.1201465538      0.8066637268
  H      -3.2773686006     -5.3073011531      2.2076890392
  O      -1.1059016399      4.5949836798      4.0860542328
  H      -1.8381133811      5.0767214236      4.5472714366
  H      -1.5676095877      3.9116572679      3.5326045962
  O       0.0799514332      1.5839338424      4.1341318830
  H       0.8436168719      1.2216215618      4.6463866569
  H      -0.3813367701      0.7963507127      3.8540038158
  O      -1.1305848622      4.6924004145     -3.7059077235
  H      -2.0145213611      4.1809743564     -3.7794506001
  H      -0.7173989708      4.5683476302     -4.6577491842
  O       2.9129670630      5.2701207374     -2.1346731303
  H       3.2772231243      6.0291848031     -1.6083191618
  H       2.8329980920      5.8140316550     -2.9117269117
  O      -2.6743676770      2.4999195380      3.1601731727
  H      -3.5566495756      2.8047406700      3.3921873680
  H      -2.7071765403      2.2470520575      2.1843937737
  O       0.8667435698     -2.1677376405      3.8006238482
  H       1.1778168523     -2.9712370407      4.2789183544
  H       0.0770292029     -1.7696296055      4.1935265897
  O      -5.6531564199     -4.1771506715     -1.1282781657
  H      -5.5606325359     -5.1550505854     -0.8491466023
  H      -6.6223952845     -4.1453779227     -1.0240087986
  O       4.6433670793     -3.0845038670      1.9085085266
  H       5.2452687322     -3.6486601443      2.4936205710
  H       3.8318370132     -3.6044513210      1.7989184889
  O       0.6753462930      3.5876584234     -1.9677863178
  H      -0.0189581893      3.8631923780     -2.6470740965
  H       1.4354573438      4.1893633191     -1.9907160658
  O      -0.9809963245     -3.4256456135     -5.9013345532
  H      -1.5771600146     -3.4978085673     -5.0861852950
  H      -0.9028740072     -2.4456767920     -6.1349020024
  O       2.7019381239      4.4889820803      1.0280358704
  H       2.9500562118      4.8730274747      1.9019794175
  H       2.0049805899      5.1139353255      0.6623149826
  O      -5.8031195815     -1.2084524471     -2.2334156300
  H      -6.3881048890     -1.4285042878     -1.4289076321
  H      -5.1239641104     -1.8506767694     -2.4673565229
  O      -1.6825141923     -0.8863693903      3.5205220636
  H      -2.2042297804     -1.6054538682      3.9442899955
  H      -2.3381307890     -0.1775100610      3.4958116499
  O       3.6460983067     -1.0855337126      3.7954917368
  H       4.0260380821     -1.8765969237      3.2421231183
  H       2.6567826907     -1.2010777212      3.6203755654
  O      -4.0357048058     -1.7787657764     -5.0480643184
  H      -3.2399936461     -1.3927380607     -4.7551800109
  H      -4.3491819263     -1.2411968401     -5.7682029022
  O       3.3715636118      1.7326981704      2.6617727374
  H       3.1270930231      1.6035583702      1.7189435489
  H       3.5131165723      0.8674250112      2.9899194440
  O      -2.6748551951      1.3020350870      5.8814160400
  H      -3.3730738412      1.0176267332      5.3040117621
  H      -2.2009272552      1.9370273539      5.3924670436
  O       3.7997091515     -4.6614444715     -0.8289654450
  H       3.4494500582     -3.9371349707     -1.3899050713
  H       3.1391148488     -4.6997628446     -0.1169788828
  O      -0.4337969201     -5.5236228958      2.6799743069
  H      -0.6371697717     -6.4051957552      3.1757372157
  H      -1.2986220197     -5.1415274509      2.4018043598
  O      -2.5313468864     -2.7849804723     -1.5609867828
  H      -3.3318109306     -3.2606392930     -1.3640768813
  H      -1.9240397991     -2.7387406492     -0.7556429145
  O       5.1605446579      4.3700498709      5.5664228414
  H       5.8125149846      4.7897611414      6.1530054818
  H       4.7186612883      3.6792128501      6.0803878331
  O      -3.7534925500     -3.1471811633      4.4841877314
  H      -3.7398739673     -2.7875947629      5.4214200202
  H      -4.6051609969     -2.9011315288      4.0703712072
  O      -2.6021179692      1.4197591676      0.4875602819
  H      -3.2415863308      1.2765412300     -0.2947723193
  H      -1.7186343142      1.2000794848      0.1991200098
  O      -5.1037367435     -4.7547037241     -3.9190675468
  H      -5.4873836563     -4.5511581983     -3.0096616596
  H      -5.6902676138     -4.3966586187     -4.5745432981
  O       0.6869130317     -0.7564733083     -3.9528584054
  H      -0.1415258384     -0.9981652016     -3.5717444956
  H       1.2841879086     -1.5588854246     -3.8492436487
  O      -2.1010397673     -0.8924581079     -3.3964922871
  H      -2.4255314524     -0.0816805885     -3.0187567337
  H      -2.2620111552     -1.5588629229     -2.7111303439
  O       4.7923292764     -1.6551089927     -4.2440039913
  H       5.5589563409     -1.6149058842     -3.6218009108
  H       5.0958530368     -2.3919151889     -4.7693044190
  O       3.2286234602     -5.1915015491     -4.2175607558
  H       2.9662998731     -4.3791335799     -3.7629643140
  H       2.3939761447     -5.3561512075     -4.7757602510
  O      -2.4062048023     -5.8175691345      5.5107170636
  H      -1.7282106351     -5.0552171196      5.6514488166
  H      -3.0870079168     -5.3421849591      4.9682405141
  O       5.4601635489     -3.9803255567     -5.6981191525
  H       5.4748117225     -4.0217718879     -6.6585659429
  H       4.6696918727     -4.5419001531     -5.5425178747
  O      -4.8474616103      6.0835111498      2.6083990028
  H      -5.2437470926      6.2003850151      1.7347950503
  H      -5.1145513745      5.1581348934      2.9226773637
  O      -0.4728931588     -0.7311877125      6.0755728685
  H      -1.1489537771     -0.0545778644      6.1358706139
  H      -0.0012196868     -0.7366625778      6.9152332848
  O       5.2588904982     -0.0058764219      5.5782190313
  H       4.6644350400     -0.3884987618      4.8710007234
  H       5.0836064025     -0.5481834906      6.3798496263
  O       5.7586597704     -4.4189439073      3.8397994522
  H       5.1974384534     -5.2474396906      3.9621674570
  H       6.5901643561     -4.9351710193      3.8892410449
  O      -2.9078896316     -5.7733226334     -0.8776611612
  H      -2.5191580983     -5.2923359934     -1.6952109245
  H      -2.3356662584     -6.5350695457     -0.6631176919
  O       2.7530353912     -2.4814556363     -2.7684639569
  H       2.9680837722     -1.9531313926     -2.0226907639
  H       3.4563932478     -2.1302559747     -3.4378753381
  O       2.0849303367     -3.1005887528      0.6659159782
  H       1.0925262811     -3.0801750433      0.6772412052
  H       2.3595175902     -2.2458664660      1.0989320190
  O      -4.3984607770     -0.1555950088      1.9789364979
  H      -3.5853558984      0.2072623274      1.5432495531
  H      -4.6029741518     -1.0673266625      1.6051666317
  O      -4.8962468496     -2.7125895178      1.3925790768
  H      -4.1597377948     -3.3734186584      1.4771328824
  H      -5.4360884012     -2.9039535434      0.5736718134
  O       0.9563958778      6.4214511966      0.2989946302
  H       0.4075170919      6.6198868319      1.1684937723
  H       0.2323114830      6.1169150552     -0.2885766947
  O       1.9470395966     -4.8240018084      4.0165856384
  H       1.7769391194     -5.1573294797      4.9582511575
  H       1.0544900121     -4.7273291256      3.6894987236
