         192
Positions of atoms inside and outside of the box - Step        0
  O       0.0000000000      0.0000000000      0.0000000000
  H       0.4510232040      0.2606599103     -0.8794480578
  H       0.0866851414      0.8136080600      0.6345709046
  O      -5.3409903435      5.4349327393     -0.4559951210
  H      -4.5798792437      5.1120582841     -0.8076149980
  H      -5.9788380675      4.6614296508     -0.5910176206
  O       1.3984671136      0.7635621948     -2.0896326304
  H       1.0987054550      1.6840239739     -2.3546838671
  H       1.2563941039      0.1225543102     -2.8286196986
  O       1.6852618844      1.6419415241     -5.8285610548
  H       2.6491512994      1.8342596304     -5.6087225543
  H       1.4682391350      0.7984280806     -5.4045802502
  O       0.2519332907      2.5563242304      1.5279635953
  H       1.2179101382      2.7570388384      1.3205935164
  H       0.2280751751      2.2699898133      2.5085954663
  O      -3.7628183136      0.6828641938     -2.2010810521
  H      -4.6244802818      0.2773947310     -2.4661232079
  H      -3.5633656380      1.3953574585     -2.8588900650
  O      -2.1031307544     -5.0556389840     -3.8443712967
  H      -3.1014687177     -4.9299595377     -4.0728225284
  H      -1.9921310080     -5.9867387086     -4.0860294450
  O      -0.5634883973     -2.6606988101      0.6846629805
  H      -0.1811674061     -1.7751649993      0.6066973723
  H      -0.8905586143     -2.6129231436      1.6413515441
  O       5.2576545156      3.3590457818     -0.3740088148
  H       5.6075804143      2.6394671281      0.1622171074
  H       4.4042358654      3.7267737525      0.0690265841
  O       5.0144464312      3.4463196780     -3.2707812955
  H       5.2703925411      3.0417939044     -2.4557771342
  H       4.2395086744      4.0159309246     -3.0690708263
  O       4.1952188487      5.5374880564      3.4651607300
  H       4.1454092704      5.0132120750      4.2574139444
  H       3.3750983203      6.1651203100      3.4806520249
  O       0.8871462790     -5.7916415080     -5.9516723546
  H       0.5634591203     -6.6931620800     -6.1016560917
  H       0.1903298718     -5.1087353969     -5.9135382334
  O       4.6959568528     -1.8178807373     -0.5049546913
  H       4.3397183977     -0.9566415498     -0.2217098707
  H       4.8147023702     -2.4096967023      0.2100027760
  O      -3.3947521165      2.6752273723     -4.2835813206
  H      -3.4203262541      2.2623280062     -5.1847417010
  H      -4.0984021951      3.3802899445     -4.3988919713
  O       3.5624788510      1.0010478294     -0.3116481929
  H       2.6572913164      0.9589288326     -0.6703813880
  H       3.9315157552      1.8020263365     -0.6878438566
  O      -1.1975443356      4.2668434464     -0.0921694615
  H      -0.7258079733      3.8821623338      0.7070247363
  H      -0.8653647445      3.6123515444     -0.7540397828
  O      -5.3752552379      3.1292297990      3.5669979948
  H      -6.1632670098      3.2010147277      4.1317898699
  H      -5.6971537711      2.4652686438      2.8625122712
  O       0.3178528481      3.9356860699     -6.1758964537
  H      -0.1326914057      4.0024168806     -7.0085100808
  H       0.8568998549      3.0960751912     -6.0238589114
  O       5.9691463103      1.5430885097      1.3877128438
  H       5.0727946124      1.4122727113      1.8532438105
  H       6.5248084955      0.7622739054      1.5958962463
  O      -5.3352595958      4.6123260719     -4.8600269072
  H      -5.4074507386      5.6146862660     -4.8135196231
  H      -6.0658933510      4.2380287894     -4.2651315081
  O      -4.4857663757     -0.5587584142      4.5343851395
  H      -5.4384183108     -0.3106010121      4.8411107275
  H      -4.5289426601     -0.5020453784      3.5724413492
  O       4.2863030056      1.8201043299     -5.3694443780
  H       4.8158011047      1.1033457313     -5.7310725244
  H       4.8201901795      2.1567837258     -4.5582450413
  O      -2.8199086546     -5.0113744929      1.4982238799
  H      -2.7323272062     -5.4696108535      0.6649972145
  H      -3.2470935741     -5.6567654528      2.0660225269
  O      -1.0756266134      4.2455193801      3.9443877205
  H      -1.8078383546      4.7272571239      4.4056049243
  H      -1.5373345612      3.5621929682      3.3909380839
  O       0.1102264597      1.2344695427      3.9924653707
  H       0.8738918984      0.8721572621      4.5047201446
  H      -0.3510617436      0.4468864130      3.7123373035
  O      -1.1003098357      4.3429361148     -3.8475742358
  H      -1.9842463346      3.8315100567     -3.9211171124
  H      -0.6871239443      4.2188833305     -4.7994156965
  O       2.9432420895      4.9206564377     -2.2763396426
  H       3.3074981508      5.6797205034     -1.7499856741
  H       2.8632731185      5.4645673553     -3.0533934240
  O      -2.6440926505      2.1504552383      3.0185066604
  H      -3.5263745491      2.4552763703      3.2505208557
  H      -2.6769015138      1.8975877578      2.0427272614
  O       0.8970185963     -2.5172019402      3.6589573359
  H       1.2080918788     -3.3207013404      4.1372518421
  H       0.1073042294     -2.1190939052      4.0518600774
  O      -5.6228813934     -4.5266149712     -1.2699446780
  H      -5.5303575094     -5.5045148851     -0.9908131146
  H      -6.5921202580     -4.4948422224     -1.1656753109
  O       4.6736421058     -3.4339681667      1.7668420143
  H       5.2755437587     -3.9981244440      2.3519540587
  H       3.8621120397     -3.9539156207      1.6572519766
  O       0.7056213195      3.2381941237     -2.1094528301
  H       0.0113168372      3.5137280783     -2.7887406088
  H       1.4657323703      3.8398990194     -2.1323825781
  O      -0.9507212980     -3.7751099132     -6.0430010655
  H      -1.5468849881     -3.8472728670     -5.2278518073
  H      -0.8725989807     -2.7951410917     -6.2765685147
  O       2.7322131504      4.1395177806      0.8863693581
  H       2.9803312383      4.5235631750      1.7603129052
  H       2.0352556164      4.7644710258      0.5206484703
  O      -5.7728445550     -1.5579167468     -2.3750821423
  H      -6.3578298625     -1.7779685875     -1.5705741444
  H      -5.0936890839     -2.2001410691     -2.6090230352
  O      -1.6522391658     -1.2358336900      3.3788555513
  H      -2.1739547539     -1.9549181679      3.8026234832
  H      -2.3078557625     -0.5269743607      3.3541451376
  O       3.6763733332     -1.4349980123      3.6538252245
  H       4.0563131086     -2.2260612234      3.1004566060
  H       2.6870577172     -1.5505420209      3.4787090531
  O      -4.0054297793     -2.1282300761     -5.1897308307
  H      -3.2097186196     -1.7422023604     -4.8968465232
  H      -4.3189068998     -1.5906611398     -5.9098694145
  O       3.4018386383      1.3832338707      2.5201062251
  H       3.1573680496      1.2540940705      1.5772770366
  H       3.5433915988      0.5179607115      2.8482529317
  O      -2.6445801686      0.9525707873      5.7397495277
  H      -3.3427988147      0.6681624335      5.1623452498
  H      -2.1706522287      1.5875630542      5.2508005313
  O       3.8299841780     -5.0109087712     -0.9706319573
  H       3.4797250847     -4.2865992704     -1.5315715836
  H       3.1693898753     -5.0492271443     -0.2586453951
  O      -0.4035218936     -5.8730871955      2.5383077946
  H      -0.6068947452     -6.7546600549      3.0340707034
  H      -1.2683469932     -5.4909917506      2.2601378475
  O      -2.5010718599     -3.1344447720     -1.7026532951
  H      -3.3015359041     -3.6101035927     -1.5057433936
  H      -1.8937647726     -3.0882049489     -0.8973094268
  O       5.1908196844      4.0205855712      5.4247563291
  H       5.8427900111      4.4402968417      6.0113389695
  H       4.7489363148      3.3297485504      5.9387213208
  O      -3.7232175235     -3.4966454630      4.3425212191
  H      -3.7095989408     -3.1370590626      5.2797535079
  H      -4.5748859704     -3.2505958285      3.9287046949
  O      -2.5718429427      1.0702948679      0.3458937696
  H      -3.2113113043      0.9270769303     -0.4364388316
  H      -1.6883592877      0.8506151851      0.0574534975
  O      -5.0734617170     -5.1041680238     -4.0607340591
  H      -5.4571086298     -4.9006224980     -3.1513281719
  H      -5.6599925873     -4.7461229184     -4.7162098104
  O       0.7171880582     -1.1059376080     -4.0945249177
  H      -0.1112508119     -1.3476295013     -3.7134110079
  H       1.3144629351     -1.9083497243     -3.9909101610
  O      -2.0707647408     -1.2419224076     -3.5381587994
  H      -2.3952564259     -0.4311448882     -3.1604232460
  H      -2.2317361287     -1.9083272226     -2.8527968562
  O       4.8226043029     -2.0045732924     -4.3856705036
  H       5.5892313674     -1.9643701839     -3.7634674231
  H       5.1261280633     -2.7413794886     -4.9109709313
  O       3.2588984867     -5.5409658488     -4.3592272681
  H       2.9965748996     -4.7285978796     -3.9046308263
  H       2.4242511712     -5.7056155072     -4.9174267633
  O      -2.3759297758     -6.1670334342      5.3690505513
  H      -1.6979356086     -5.4046814193      5.5097823043
  H      -3.0567328903     -5.6916492588      4.8265740018
  O       5.4904385754     -4.3297898564     -5.8397856648
  H       5.5050867490     -4.3712361876     -6.8002324552
  H       4.6999668992     -4.8913644528     -5.6841843870
  O      -4.8171865838      5.7340468501      2.4667324905
  H      -5.2134720661      5.8509207154      1.5931285380
  H      -5.0842763480      4.8086705937      2.7810108514
  O      -0.4426181323     -1.0806520122      5.9339063562
  H      -1.1186787506     -0.4040421641      5.9942041016
  H       0.0290553397     -1.0861268775      6.7735667725
  O       5.2891655247     -0.3553407216      5.4365525190
  H       4.6947100665     -0.7379630615      4.7293342111
  H       5.1138814290     -0.8976477903      6.2381831140
  O       5.7889347969     -4.7684082070      3.6981329399
  H       5.2277134799     -5.5969039903      3.8205009447
  H       6.6204393826     -5.2846353190      3.7475745326
  O      -2.8776146051     -6.1227869331     -1.0193276735
  H      -2.4888830718     -5.6418002931     -1.8368774368
  H      -2.3053912319     -6.8845338454     -0.8047842042
  O       2.7833104177     -2.8309199360     -2.9101304692
  H       2.9983587987     -2.3025956923     -2.1643572762
  H       3.4866682743     -2.4797202744     -3.5795418504
  O       2.1152053632     -3.4500530525      0.5242494659
  H       1.1228013076     -3.4296393430      0.5355746929
  H       2.3897926167     -2.5953307657      0.9572655067
  O      -4.3681857505     -0.5050593085      1.8372699856
  H      -3.5550808719     -0.1422019723      1.4015830408
  H      -4.5726991253     -1.4167909622      1.4635001194
  O      -4.8659718231     -3.0620538175      1.2509125645
  H      -4.1294627683     -3.7228829581      1.3354663701
  H      -5.4058133747     -3.2534178431      0.4320053011
  O       0.9866709043      6.0719868969      0.1573281179
  H       0.4377921184      6.2704225322      1.0268272600
  H       0.2625865095      5.7674507555     -0.4302432070
  O       1.9773146231     -5.1734661081      3.8749191261
  H       1.8072141459     -5.5067937794      4.8165846452
  H       1.0847650386     -5.0767934253      3.5478322113
