          12
Positions of atoms inside and outside of the box - Step        0
  O      -1.2560734003      1.4066813870      1.0399007187
  H      -2.2228442489      1.1860139798      1.1692164698
  H      -0.6930270788      0.6712814361      1.4170239572
  O       0.8834071129      0.8005223415     -0.7039151094
  H       0.4799913000      1.5365325862     -0.1602298177
  H       0.1647633568      0.1691354939     -0.9954087290
  O      -1.5224063735     -0.9985023780     -0.8569767007
  H      -1.8743920536     -0.0952327982     -1.1024587274
  H      -1.6379674215     -1.6225303130     -1.6298094051
  O       2.0354974957     -1.2042567814      0.5863040227
  H       2.1034307947     -0.2380346175      0.3376032820
  H       1.4509979495     -1.6777170714     -0.0726882565
          12
Positions of atoms inside and outside of the box - Step        1
  O      -1.2560722029      1.4066832470      1.0398994436
  H      -2.2227838209      1.1859763968      1.1692373784
  H      -0.6931071860      0.6712853744      1.4170286453
  O       0.8834093072      0.8005229196     -0.7039159489
  H       0.4799568403      1.5364716302     -0.1602702588
  H       0.1647619810      0.1691968281     -0.9953611987
  O      -1.5224045290     -0.9985022693     -0.8569746900
  H      -1.8744018678     -0.0952966357     -1.1024996445
  H      -1.6379870414     -1.6224603219     -1.6298041274
  O       2.0354995869     -1.2042585502      0.5863070754
  H       2.1033782796     -0.2380959297      0.3375574829
  H       1.4510193720     -1.6776415770     -0.0726858843
          12
Positions of atoms inside and outside of the box - Step        2
  O      -1.2560686074      1.4066888337      1.0398956145
  H      -2.2226028071      1.1858636733      1.1693000930
  H      -0.6933472858      0.6712970553      1.4170427782
  O       0.8834159004      0.8005246519     -0.7039184700
  H       0.4798534314      1.5362890084     -0.1603914084
  H       0.1647577183      0.1693806071     -0.9952187355
  O      -1.5223989926     -0.9985019451     -0.8569686507
  H      -1.8744313708     -0.0954878998     -1.1026223735
  H      -1.6380458902     -1.6222505688     -1.6297884328
  O       2.0355058637     -1.2042638601      0.5863162397
  H       2.1032208188     -0.2382795847      0.3374201084
  H       1.4510834990     -1.6774153108     -0.0726788884
          12
Positions of atoms inside and outside of the box - Step        3
  O      -1.2560626036      1.4066981678      1.0398892198
  H      -2.2223020182      1.1856758849      1.1694045798
  H      -0.6937467131      0.6713160766      1.4170665616
  O       0.8834269230      0.8005275324     -0.7039226806
  H       0.4796809846      1.5359854587     -0.1605927467
  H       0.1647501638      0.1696861606     -0.9949817222
  O      -1.5223897547     -0.9985014105     -0.8569585606
  H      -1.8744807436     -0.0958058459     -1.1028268464
  H      -1.6381439357     -1.6219017139     -1.6297627358
  O       2.0355163364     -1.2042727216      0.5863315336
  H       2.1029586649     -0.2385847383      0.3371912278
  H       1.4511899091     -1.6770389231     -0.0726676295
          12
Positions of atoms inside and outside of the box - Step        4
  O      -1.2560541751      1.4067112833      1.0398802404
  H      -2.2218828012      1.1854131584      1.1695507820
  H      -0.6943043620      0.6713417708      1.4171003371
  O       0.8834424258      0.8005315508     -0.7039285936
  H       0.4794393526      1.5355622080     -0.1608734092
  H       0.1647386445      0.1701123738     -0.9946507952
  O      -1.5223767996     -0.9985006739     -0.8569443831
  H      -1.8745502866     -0.0962492364     -1.1031129500
  H      -1.6382811234     -1.6214148553     -1.6297277253
  O       2.0355310219     -1.2042851523      0.5863529872
  H       2.1025922384     -0.2390099868      0.3368709568
  H       1.4513379023     -1.6765134960     -0.0726527074
          12
Positions of atoms inside and outside of the box - Step        5
  O      -1.2560432986      1.4067282275      1.0398686496
  H      -2.2213470356      1.1850756716      1.1697386201
  H      -0.6950186894      0.6713732074      1.4171445809
  O       0.8834624795      0.8005366933     -0.7039362273
  H       0.4791283314      1.5350209682     -0.1612321901
  H       0.1647222229      0.1706576911     -0.9942268431
  O      -1.5223601055     -0.9984997474     -0.8569260672
  H      -1.8746404189     -0.0968163454     -1.1034805247
  H      -1.6384573770     -1.6207915248     -1.6296843611
  O       2.0355499434     -1.2043011765      0.5863806421
  H       2.1021221267     -0.2395533730      0.3364594579
  H       1.4515265022     -1.6758405401     -0.0726349575
          12
Positions of atoms inside and outside of the box - Step        6
  O      -1.2560299445      1.4067490608      1.0398544134
  H      -2.2206971256      1.1846636542      1.1699679910
  H      -0.6958877196      0.6714091979      1.4171999012
  O       0.8834871742      0.8005429419     -0.7039456049
  H       0.4787476617      1.5343639298     -0.1616675467
  H       0.1646997011      0.1713201211     -0.9937110030
  O      -1.5223396445     -0.9984986459     -0.8569035481
  H      -1.8747516754     -0.0975049649     -1.1039293643
  H      -1.6386725979     -1.6200336837     -1.6296338693
  O       2.0355731310     -1.2043208251      0.5864145515
  H       2.1015490824     -0.2402123931      0.3359569417
  H       1.4517544603     -1.6750219903     -0.0726154475
          12
Positions of atoms inside and outside of the box - Step        7
  O      -1.2560140772      1.4067738562      1.0398374907
  H      -2.2199359914      1.1841773885      1.1702387675
  H      -0.6969090511      0.6714483016      1.4172670355
  O       0.8835166190      0.8005502749     -0.7039567545
  H       0.4782970321      1.5335937548     -0.1621776050
  H       0.1646696268      0.1720972429     -0.9931046574
  O      -1.5223153830     -0.9984973877     -0.8568767474
  H      -1.8748847054     -0.0983124141     -1.1044592147
  H      -1.6389266644     -1.6191437154     -1.6295777360
  O       2.0356006208     -1.2043441355      0.5864547796
  H       2.1008740217     -0.2409840069      0.3353636675
  H       1.4520202609     -1.6740602002     -0.0725954714
          12
Positions of atoms inside and outside of the box - Step        8
  O      -1.2559956548      1.4068026985      1.0398178337
  H      -2.2190670580      1.1836172102      1.1705507983
  H      -0.6980798648      0.6714888330      1.4173468467
  O       0.8835509416      0.8005586669     -0.7039697090
  H       0.4777760817      1.5327135665     -0.1627601675
  H       0.1646303006      0.1729862148     -0.9924094297
  O      -1.5222872818     -0.9984959938     -0.8568455735
  H      -1.8750402684     -0.0992355494     -1.1050697731
  H      -1.6392194313     -1.6181244180     -1.6295177002
  O       2.0356324549     -1.2043711509      0.5865014011
  H       2.1000980224     -0.2418646498      0.3346799447
  H       1.4523221275     -1.6729579357     -0.0725765439
          12
Positions of atoms inside and outside of the box - Step        9
  O      -1.2559746298      1.4068356842      1.0397953880
  H      -2.2180942418      1.1829835098      1.1709039062
  H      -0.6993969331      0.6715288702      1.4174403191
  O       0.8835902868      0.8005680890     -0.7039845060
  H       0.4771844043      1.5317269382     -0.1634127207
  H       0.1645797842      0.1739837836     -0.9916271783
  O      -1.5222552965     -0.9984944881     -0.8568099228
  H      -1.8752192311     -0.1002707776     -1.1057606858
  H      -1.6395507293     -1.6169789943     -1.6294557447
  O       2.0356686811     -1.2044019205      0.5865545008
  H       2.0992223206     -0.2428502472      0.3339061343
  H       1.4526580304     -1.6717183666     -0.0725603923
          12
Positions of atoms inside and outside of the box - Step       10
  O      -1.2559509492      1.4068729204      1.0397700932
  H      -2.2170219349      1.1822767338      1.1712978880
  H      -0.7008566312      0.6715662651      1.4175485530
  O       0.8836348165      0.8005785090     -0.7040011872
  H       0.4765215528      1.5306378799     -0.1641324463
  H       0.1645159112      0.1750862959     -0.9907599907
  O      -1.5222193776     -0.9984928970     -0.8567696799
  H      -1.8754225627     -0.1014140701     -1.1065315475
  H      -1.6399203638     -1.6157110405     -1.6293940859
  O       2.0357093526     -1.2044364984      0.5866141728
  H       2.0982483085     -0.2439362318      0.3330426510
  H       1.4530256955     -1.6703450571     -0.0725489475
