          12
Positions of atoms inside of the box - Step        0
  O      -1.2560734003      1.4066813870      1.0399007187
  H      -2.2228442489      1.1860139798      1.1692164698
  H      -0.6930270788      0.6712814361      1.4170239572
  O       0.8834071129      0.8005223415     -0.7039151094
  H       0.4799913000      1.5365325862     -0.1602298177
  H       0.1647633568      0.1691354939     -0.9954087290
  O      -1.5224063735     -0.9985023780     -0.8569767007
  H      -1.8743920536     -0.0952327982     -1.1024587274
  H      -1.6379674215     -1.6225303130     -1.6298094051
  O       2.0354974957     -1.2042567814      0.5863040227
  H       2.1034307947     -0.2380346175      0.3376032820
  H       1.4509979495     -1.6777170714     -0.0726882565
          12
Positions of atoms inside of the box - Step        1
  O      -1.2559809181      1.4066795070      1.0401629092
  H      -2.2246381043      1.1878243302      1.1679990855
  H      -0.6955807700      0.6732240883      1.4155155515
  O       0.8836114221      0.8002718452     -0.7037053339
  H       0.4778189566      1.5380662775     -0.1612819012
  H       0.1628548459      0.1709943318     -0.9966650673
  O      -1.5218551246     -0.9988377705     -0.8569128795
  H      -1.8767392733     -0.0933983826     -1.1037275620
  H      -1.6399816891     -1.6208972499     -1.6310918187
  O       2.0357405085     -1.2045606748      0.5864143278
  H       2.1011208289     -0.2363769755      0.3361400531
  H       1.4487791346     -1.6758344160     -0.0738949472
          12
Positions of atoms inside of the box - Step        2
  O      -1.2558872207      1.4066822821      1.0404220351
  H      -2.2263027151      1.1895601458      1.1668230813
  H      -0.6982837613      0.6751586259      1.4140247966
  O       0.8838195014      0.8000228629     -0.7034969873
  H       0.4755835663      1.5394726100     -0.1624188806
  H       0.1609476481      0.1729759239     -0.9978264544
  O      -1.5213007916     -0.9991717828     -0.8568455445
  H      -1.8790987075     -0.0917071867     -1.1050710418
  H      -1.6420338799     -1.6191269226     -1.6323626001
  O       2.0359873486     -1.2048674265      0.5865300144
  H       2.0987074228     -0.2348524065      0.3345911004
  H       1.4466073854     -1.6738011278     -0.0750909934
          12
Positions of atoms inside of the box - Step        3
  O      -1.2557934859      1.4066906776      1.0406775712
  H      -2.2278303485      1.1912221195      1.1656879945
  H      -0.7011245384      0.6770685693      1.4125601718
  O       0.8840307508      0.7997757430     -0.7032898293
  H       0.4732909364      1.5407467260     -0.1636443152
  H       0.1590455759      0.1750798907     -0.9988932724
  O      -1.5207439633     -0.9995032881     -0.8567751865
  H      -1.8814631632     -0.0901737939     -1.1064820189
  H      -1.6441226490     -1.6172224579     -1.6336209055
  O       2.0362376632     -1.2051763732      0.5866503729
  H       2.0961924188     -0.2334705971      0.3329623270
  H       1.4444866247     -1.6716180629     -0.0762707672
          12
Positions of atoms inside of the box - Step        4
  O      -1.2557008820      1.4067056836      1.0409289830
  H      -2.2292139705      1.1928109935      1.1645933456
  H      -0.7040910586      0.6789370320      1.4111303205
  O       0.8842445910      0.7995308232     -0.7030836315
  H       0.4709467945      1.5418843726     -0.1649612949
  H       0.1571521835      0.1773053860     -0.9998661708
  O      -1.5201852125     -0.9998312006     -0.8567022795
  H      -1.8838256922     -0.0888117715     -1.1079534063
  H      -1.6462466211     -1.6151873754     -1.6348661107
  O       2.0364911020     -1.2054868695      0.5867747101
  H       2.0935779119     -0.2322404397      0.3312596509
  H       1.4424204706     -1.6692865800     -0.0774289258
          12
Positions of atoms inside of the box - Step        5
  O      -1.2556105598      1.4067283093      1.0411757292
  H      -2.2304472860      1.1943275470      1.1635386445
  H      -0.7071708281      0.6807468124      1.4097440042
  O       0.8844604642      0.7992884302     -0.7028781779
  H       0.4685567755      1.5428819153     -0.1663724266
  H       0.1552707628      0.1796510966     -1.0007460628
  O      -1.5196250955     -1.0001544782     -0.8566272800
  H      -1.8861796117     -0.0876336272     -1.1094781947
  H      -1.6484043874     -1.6130255720     -1.6360977968
  O       2.0367473180     -1.2057982888      0.5869023506
  H       2.0908662500     -0.2311700030      0.3294889926
  H       1.4404122304     -1.6668085423     -0.0785604232
          12
Positions of atoms inside of the box - Step        6
  O      -1.2555236447      1.4067595771      1.0414172642
  H      -2.2315247761      1.1957725860      1.1625233977
  H      -0.7103509877      0.6824804961      1.4084100512
  O       0.8846778352      0.7990488787     -0.7026732664
  H       0.4661264108      1.5437363505     -0.1678798238
  H       0.1534043400      0.1821152419     -1.0015341208
  O      -1.5190641513     -1.0004721263     -0.8565506267
  H      -1.8885185223     -0.0866507710     -1.1110494662
  H      -1.6505945017     -1.6107413066     -1.6373157358
  O       2.0370059676     -1.2061100254      0.5870326384
  H       2.0880600331     -0.2302665076      0.3276562637
  H       1.4384648953     -1.6641863185     -0.0796605199
          12
Positions of atoms inside of the box - Step        7
  O      -1.2554412279      1.4068005149      1.0416530410
  H      -2.2324417338      1.1971469343      1.1615471130
  H      -0.7136184054      0.6841205712      1.4071373002
  O       0.8848961924      0.7988124706     -0.7024687098
  H       0.4636611179      1.5444453159     -0.1694850960
  H       0.1515556733      0.1846955744     -1.0022317727
  O      -1.5185029021     -1.0007831994     -0.8564727407
  H      -1.8908363229     -0.0858734853     -1.1126604074
  H      -1.6528154774     -1.6083391856     -1.6385198757
  O       2.0372667112     -1.2064214949      0.5871649381
  H       2.0851621125     -0.2295363030      0.3257673573
  H       1.4365811354     -1.6614227844     -0.0807247918
          12
Positions of atoms inside of the box - Step        8
  O      -1.2553643581      1.4068521486      1.0418825149
  H      -2.2331942965      1.1984514249      1.1606093050
  H      -0.7169597769      0.6856495537      1.4059345376
  O       0.8851150484      0.7985794948     -0.7022643365
  H       0.4611661908      1.5450071003     -0.1711893413
  H       0.1497272520      0.1873893811     -1.0028406977
  O      -1.5179418530     -1.0010868041     -0.8563940254
  H      -1.8931272253     -0.0853108990     -1.1143043202
  H      -1.6550657829     -1.6058241484     -1.6397103248
  O       2.0375292138     -1.2067321353      0.5872986362
  H       2.0821755899     -0.2289848479      0.3238281386
  H       1.4347632955     -1.6585213232     -0.0817491385
          12
Positions of atoms inside of the box - Step        9
  O      -1.2552940321      1.4069154930      1.0421051473
  H      -2.2337794769      1.1996868932      1.1597094982
  H      -0.7203617334      0.6870501266      1.4048104290
  O       0.8853339411      0.7983502258     -0.7020599913
  H       0.4586467921      1.5454206520     -0.1729931399
  H       0.1479212955      0.1901934858     -1.0033628230
  O      -1.5173814916     -1.0013821008     -0.8563148667
  H      -1.8953857662     -0.0849709665     -1.1159746316
  H      -1.6573438387     -1.6032014527     -1.6408873368
  O       2.0377931450     -1.2070414083      0.5874331422
  H       2.0791038154     -0.2286166923      0.3218444358
  H       1.4330133906     -1.6554858247     -0.0827297908
          12
Positions of atoms inside of the box - Step       10
  O      -1.2552311856      1.4069915425      1.0423204095
  H      -2.2341951918      1.2008541709      1.1588472314
  H      -0.7238109565      0.6883052889      1.4037734464
  O       0.8855524341      0.7981249238     -0.7018555362
  H       0.4561079435      1.5456855862     -0.1748965488
  H       0.1461397531      0.1931042528     -1.0038003200
  O      -1.5168222888     -1.0016683056     -0.8562356329
  H      -1.8976068196     -0.0848604507     -1.1176649035
  H      -1.6596480133     -1.6004766596     -1.6420512940
  O       2.0380581802     -1.2073487996      0.5875678896
  H       2.0759503843     -0.2284354610      0.3198220318
  H       1.4313331018     -1.6523206840     -0.0836633172
