          96
Positions of atoms inside and outside of the box - Step        0
  O       0.0080994694      0.2990619765     -0.3615563521
  H       0.3744430669      0.5107829886     -1.0758880370
  H       0.0785094755      0.9599151232      0.1538738652
  O       1.1440043824      0.9192653692     -2.0588604561
  H       0.9005229752      1.6669104493     -2.2741483231
  H       1.0286055803      0.3986067150     -2.6591027023
  O       0.2127322848      2.3754363326      0.8795320782
  H       0.9973469792      2.5384667730      0.7110957316
  H       0.1933535304      2.1428612023      1.6760503154
  O      -3.0482497058      0.8537184179     -2.1493844366
  H      -3.7481346395      0.5243758467     -2.3646649277
  H      -2.8862442701      1.4324410722     -2.6836898074
  O      -0.4495939813     -1.8620906320      0.1945611538
  H      -0.1390537562     -1.1428157942      0.1312335886
  H      -0.7152567651     -1.8232848469      0.9716314396
  O       3.8223904231     -1.1775116524     -0.7717058001
  H       3.5330357379     -0.4779701223     -0.5416401945
  H       3.9188414696     -1.6582141699     -0.1909815973
  O      -2.7492879372      2.4720154096     -3.8408952797
  H      -2.7700605305      2.1366378995     -4.5728627987
  H      -3.3208277136      3.0447024839     -3.9345563558
  O       2.9017229161      1.1121630759     -0.6146925968
  H       2.1664843411      1.0779519208     -0.9060736345
  H       3.2014731415      1.7627578683     -0.9202575246
  O      -0.9646059172      3.7648055658     -0.4364209972
  H      -0.5814380569      3.4523483321      0.2127244900
  H      -0.6947930443      3.2331945184     -0.9740251656
  O      -2.2823713353     -3.7714269553      0.8553759944
  H      -2.2112333038     -4.1436294392      0.1785876354
  H      -2.6293522862     -4.2956457625      1.3165704454
  O      -0.8655782473      3.7474850930      2.8422725739
  H      -1.4603172341      4.1387765754      3.2168962477
  H      -1.2406005279      3.1924532149      2.3927331066
  O       0.0976309113      1.3017598626      2.8813236453
  H       0.7179181639      1.0074717127      3.2974025854
  H      -0.2770504318      0.6620454655      2.6537896227
  O      -0.8856271946      3.8266118357     -3.4867485251
  H      -1.6036046159      3.4112060200     -3.5464837266
  H      -0.5500169544      3.7258499617     -4.2598817516
  O      -2.1395647860      2.0457692438      2.0902256828
  H      -2.8561982581      2.2933602083      2.2786792130
  H      -2.1662137852      1.8403776328      1.2976488660
  O       0.7367028243     -1.7455352994      2.6104317440
  H       0.9893720980     -2.3981776872      2.9989264567
  H       0.0952573297     -1.4221720480      2.9295669958
  O       3.8042652698     -2.4901786669      1.0735610740
  H       4.2931598874     -2.9484146031      1.5488183321
  H       3.1450999736     -2.9125059864      0.9845465659
  O       0.5812403862      2.9292851535     -2.0749594133
  H       0.0172915704      3.1530876081     -2.6267109116
  H       1.1986405872      3.4180199550     -2.0935841011
  O       2.2273396008      3.6613852938      0.3583971590
  H       2.4288735177      3.9733261654      1.0682578052
  H       1.6612358438      4.1690035672      0.0613403679
  O      -1.3339317930     -0.7047439382      2.3829190695
  H      -1.7576952794     -1.2888203054      2.7271245722
  H      -1.8664563737     -0.1289729480      2.3628480359
  O       2.9942337093     -0.8665151590      2.6062631865
  H       3.3028397918     -1.5090562522      2.1567895261
  H       2.1906621002     -0.9603657800      2.4640250763
  O       2.7712429033      1.4225936880      1.6853999293
  H       2.5726716677      1.3176998853      0.9195869209
  H       2.8862192955      0.7197755644      1.9519370917
  O       3.1190041180     -3.7710486729     -1.1499521594
  H       2.8345061694     -3.1827282809     -1.6055753708
  H       2.5824363956     -3.8021727714     -0.5716410742
  O      -0.3196611887     -4.4713530980      1.7001841541
  H      -0.4848507874     -5.1874106531      2.1028675768
  H      -1.0221153758     -4.1609960729      1.4742406146
  O      -2.0233961488     -2.2468907895     -1.7445364910
  H      -2.6735730687     -2.6332446666     -1.5845964235
  H      -1.5301109671     -2.2093324932     -1.0903959340
  O      -2.0808799608      1.1684089830     -0.0806041377
  H      -2.6002881375      1.0520802132     -0.7160537930
  H      -1.3632703620      0.9899741606     -0.3148897487
  O       0.5906354697     -0.5992358456     -3.6873342165
  H      -0.0822640026     -0.7955500859     -3.3777744432
  H       1.0757719884     -1.2509950871     -3.6031731303
  O      -1.6738791913     -0.7096894991     -3.2354258369
  H      -1.9374475625     -0.0511354589     -2.9286101336
  H      -1.8046282011     -1.2509768100     -2.6787405985
  O      -0.3514171086     -0.5786976204      4.4582590857
  H      -0.9005473458     -0.0291212713      4.5072359294
  H       0.0316996691     -0.5831445798      5.1402732589
  O       2.2688433562     -2.0003527415     -2.7253098257
  H       2.4435164037     -1.5712213745     -2.1195555497
  H       2.8401457752     -1.7150908164     -3.2690392201
  O       1.7261750256     -2.5032436154      0.0642652766
  H       0.9200948315     -2.4866625798      0.0734641922
  H       1.9492085223     -1.8089954379      0.4159825557
  O      -3.5399594064     -0.1111724468      1.1307661937
  H      -2.8795149688      0.1835584245      0.7768794728
  H      -3.7060753951     -0.8517264826      0.8271716199
  O      -3.9442861439     -2.1880912367      0.6544973784
  H      -3.3460566641     -2.7248497062      0.7231762070
  H      -4.3827724442     -2.3435266665     -0.0106600463
